head definition

        20 atoms
        20 bonds

         2 atom types
         1 bond types

 -300.0000  700.0000 xlo xhi
  -10.0000   10.0000 ylo yhi
  -10.0000   10.0000 zlo zhi


Atoms

         1         2         1  585.8129    2.0000    0.1331
         2         4         1  586.8129    2.0000    0.1331
         3         2         2  451.8019    2.0000   -9.0872
         4         4         2  452.8019    2.0000   -9.0872
         5         2         3  595.9742    2.0000   -6.7806
         6         4         3  596.9742    2.0000   -6.7806
         7         2         4  409.4801    2.0000   -1.5476
         8         4         4  410.4801    2.0000   -1.5476
         9         2         5  508.3399    2.0000    3.7625
        10         4         5  509.3399    2.0000    3.7625
        11         2         6  584.0800    2.0000    7.6260
        12         4         6  585.0800    2.0000    7.6260
        13         2         7  462.2994    2.0000   -4.4081
        14         4         7  463.2994    2.0000   -4.4081
        15         2         8  353.8348    2.0000    0.5048
        16         4         8  354.8348    2.0000    0.5048
        17         2         9  357.8708    2.0000    1.0268
        18         4         9  358.8708    2.0000    1.0268
        19         2        10  428.6546    2.0000   -0.4313
        20         4        10  429.6546    2.0000   -0.4313
        21         2        11  411.0418    2.0000   -1.1287
        22         4        11  412.0418    2.0000   -1.1287
        23         2        12  338.2486    2.0000   -9.5861
        24         4        12  339.2486    2.0000   -9.5861
        25         2        13  360.4237    2.0000    4.1608
        26         4        13  361.4237    2.0000    4.1608
        27         2        14  658.3254    2.0000    7.6329
        28         4        14  659.3254    2.0000    7.6329
        29         2        15  606.5946    2.0000   -9.7090
        30         4        15  607.5946    2.0000   -9.7090
        31         2        16  613.9656    2.0000    9.3884
        32         4        16  614.9656    2.0000    9.3884
        33         2        17  359.6785    2.0000   -4.4181
        34         4        17  360.6785    2.0000   -4.4181
        35         2        18  656.3544    2.0000   -5.6390
        36         4        18  657.3544    2.0000   -5.6390
        37         2        19  419.6149    2.0000    4.0603
        38         4        19  420.6149    2.0000    4.0603
        39         2        20  534.9368    2.0000    1.4744
        40         4        20  535.9368    2.0000    1.4744

Bonds

         1         1         1         2
         2         1         3         4
         3         1         5         6
         4         1         7         8
         5         1         9        10
         6         1        11        12
         7         1        13        14
         8         1        15        16
         9         1        17        18
        10         1        19        20
        11         1        21        22
        12         1        23        24
        13         1        25        26
        14         1        27        28
        15         1        29        30
        16         1        31        32
        17         1        33        34
        18         1        35        36
        19         1        37        38
        20         1        39        40
