# polymer definition

       641 atoms
       339 bonds
       298 angles
       297 dihedrals

         7 atom types
         7 bond types
         2 angle types
         1 dihedral types

  -10.0000  610.0000 xlo xhi
  -50.0000  150.0000 ylo yhi
  -50.0000   50.0000 zlo zhi

Masses

         1     14.02
         2      5.00
         3      1.00
         4      1.00
         5      1.00
         6      1.00
         7      1.00

Atoms

         1         1         1    2.0000    0.0000    0.0000
         2         1         1    4.0000    0.0000    0.0000
         3         1         1    6.0000    0.0000    0.0000
         4         1         1    8.0000    0.0000    0.0000
         5         1         1   10.0000    0.0000    0.0000
         6         1         1   12.0000    0.0000    0.0000
         7         1         1   14.0000    0.0000    0.0000
         8         1         1   16.0000    0.0000    0.0000
         9         1         1   18.0000    0.0000    0.0000
        10         1         1   20.0000    0.0000    0.0000
        11         1         1   22.0000    0.0000    0.0000
        12         1         1   24.0000    0.0000    0.0000
        13         1         1   26.0000    0.0000    0.0000
        14         1         1   28.0000    0.0000    0.0000
        15         1         1   30.0000    0.0000    0.0000
        16         1         1   32.0000    0.0000    0.0000
        17         1         1   34.0000    0.0000    0.0000
        18         1         1   36.0000    0.0000    0.0000
        19         1         1   38.0000    0.0000    0.0000
        20         1         1   40.0000    0.0000    0.0000
        21         1         1   42.0000    0.0000    0.0000
        22         1         1   44.0000    0.0000    0.0000
        23         1         1   46.0000    0.0000    0.0000
        24         1         1   48.0000    0.0000    0.0000
        25         1         1   50.0000    0.0000    0.0000
        26         1         1   52.0000    0.0000    0.0000
        27         1         1   54.0000    0.0000    0.0000
        28         1         1   56.0000    0.0000    0.0000
        29         1         1   58.0000    0.0000    0.0000
        30         1         1   60.0000    0.0000    0.0000
        31         1         1   62.0000    0.0000    0.0000
        32         1         1   64.0000    0.0000    0.0000
        33         1         1   66.0000    0.0000    0.0000
        34         1         1   68.0000    0.0000    0.0000
        35         1         1   70.0000    0.0000    0.0000
        36         1         1   72.0000    0.0000    0.0000
        37         1         1   74.0000    0.0000    0.0000
        38         1         1   76.0000    0.0000    0.0000
        39         1         1   78.0000    0.0000    0.0000
        40         1         1   80.0000    0.0000    0.0000
        41         1         1   82.0000    0.0000    0.0000
        42         1         1   84.0000    0.0000    0.0000
        43         1         1   86.0000    0.0000    0.0000
        44         1         1   88.0000    0.0000    0.0000
        45         1         1   90.0000    0.0000    0.0000
        46         1         1   92.0000    0.0000    0.0000
        47         1         1   94.0000    0.0000    0.0000
        48         1         1   96.0000    0.0000    0.0000
        49         1         1   98.0000    0.0000    0.0000
        50         1         1  100.0000    0.0000    0.0000
        51         1         1  102.0000    0.0000    0.0000
        52         1         1  104.0000    0.0000    0.0000
        53         1         1  106.0000    0.0000    0.0000
        54         1         1  108.0000    0.0000    0.0000
        55         1         1  110.0000    0.0000    0.0000
        56         1         1  112.0000    0.0000    0.0000
        57         1         1  114.0000    0.0000    0.0000
        58         1         1  116.0000    0.0000    0.0000
        59         1         1  118.0000    0.0000    0.0000
        60         1         1  120.0000    0.0000    0.0000
        61         1         1  122.0000    0.0000    0.0000
        62         1         1  124.0000    0.0000    0.0000
        63         1         1  126.0000    0.0000    0.0000
        64         1         1  128.0000    0.0000    0.0000
        65         1         1  130.0000    0.0000    0.0000
        66         1         1  132.0000    0.0000    0.0000
        67         1         1  134.0000    0.0000    0.0000
        68         1         1  136.0000    0.0000    0.0000
        69         1         1  138.0000    0.0000    0.0000
        70         1         1  140.0000    0.0000    0.0000
        71         1         1  142.0000    0.0000    0.0000
        72         1         1  144.0000    0.0000    0.0000
        73         1         1  146.0000    0.0000    0.0000
        74         1         1  148.0000    0.0000    0.0000
        75         1         1  150.0000    0.0000    0.0000
        76         1         1  152.0000    0.0000    0.0000
        77         1         1  154.0000    0.0000    0.0000
        78         1         1  156.0000    0.0000    0.0000
        79         1         1  158.0000    0.0000    0.0000
        80         1         1  160.0000    0.0000    0.0000
        81         1         1  162.0000    0.0000    0.0000
        82         1         1  164.0000    0.0000    0.0000
        83         1         1  166.0000    0.0000    0.0000
        84         1         1  168.0000    0.0000    0.0000
        85         1         1  170.0000    0.0000    0.0000
        86         1         1  172.0000    0.0000    0.0000
        87         1         1  174.0000    0.0000    0.0000
        88         1         1  176.0000    0.0000    0.0000
        89         1         1  178.0000    0.0000    0.0000
        90         1         1  180.0000    0.0000    0.0000
        91         1         1  182.0000    0.0000    0.0000
        92         1         1  184.0000    0.0000    0.0000
        93         1         1  186.0000    0.0000    0.0000
        94         1         1  188.0000    0.0000    0.0000
        95         1         1  190.0000    0.0000    0.0000
        96         1         1  192.0000    0.0000    0.0000
        97         1         1  194.0000    0.0000    0.0000
        98         1         1  196.0000    0.0000    0.0000
        99         1         1  198.0000    0.0000    0.0000
       100         1         1  200.0000    0.0000    0.0000
       101         1         1  202.0000    0.0000    0.0000
       102         1         1  204.0000    0.0000    0.0000
       103         1         1  206.0000    0.0000    0.0000
       104         1         1  208.0000    0.0000    0.0000
       105         1         1  210.0000    0.0000    0.0000
       106         1         1  212.0000    0.0000    0.0000
       107         1         1  214.0000    0.0000    0.0000
       108         1         1  216.0000    0.0000    0.0000
       109         1         1  218.0000    0.0000    0.0000
       110         1         1  220.0000    0.0000    0.0000
       111         1         1  222.0000    0.0000    0.0000
       112         1         1  224.0000    0.0000    0.0000
       113         1         1  226.0000    0.0000    0.0000
       114         1         1  228.0000    0.0000    0.0000
       115         1         1  230.0000    0.0000    0.0000
       116         1         1  232.0000    0.0000    0.0000
       117         1         1  234.0000    0.0000    0.0000
       118         1         1  236.0000    0.0000    0.0000
       119         1         1  238.0000    0.0000    0.0000
       120         1         1  240.0000    0.0000    0.0000
       121         1         1  242.0000    0.0000    0.0000
       122         1         1  244.0000    0.0000    0.0000
       123         1         1  246.0000    0.0000    0.0000
       124         1         1  248.0000    0.0000    0.0000
       125         1         1  250.0000    0.0000    0.0000
       126         1         1  252.0000    0.0000    0.0000
       127         1         1  254.0000    0.0000    0.0000
       128         1         1  256.0000    0.0000    0.0000
       129         1         1  258.0000    0.0000    0.0000
       130         1         1  260.0000    0.0000    0.0000
       131         1         1  262.0000    0.0000    0.0000
       132         1         1  264.0000    0.0000    0.0000
       133         1         1  266.0000    0.0000    0.0000
       134         1         1  268.0000    0.0000    0.0000
       135         1         1  270.0000    0.0000    0.0000
       136         1         1  272.0000    0.0000    0.0000
       137         1         1  274.0000    0.0000    0.0000
       138         1         1  276.0000    0.0000    0.0000
       139         1         1  278.0000    0.0000    0.0000
       140         1         1  280.0000    0.0000    0.0000
       141         1         1  282.0000    0.0000    0.0000
       142         1         1  284.0000    0.0000    0.0000
       143         1         1  286.0000    0.0000    0.0000
       144         1         1  288.0000    0.0000    0.0000
       145         1         1  290.0000    0.0000    0.0000
       146         1         1  292.0000    0.0000    0.0000
       147         1         1  294.0000    0.0000    0.0000
       148         1         1  296.0000    0.0000    0.0000
       149         1         1  298.0000    0.0000    0.0000
       150         1         1  300.0000    0.0000    0.0000
       151         1         1  302.0000    0.0000    0.0000
       152         1         1  304.0000    0.0000    0.0000
       153         1         1  306.0000    0.0000    0.0000
       154         1         1  308.0000    0.0000    0.0000
       155         1         1  310.0000    0.0000    0.0000
       156         1         1  312.0000    0.0000    0.0000
       157         1         1  314.0000    0.0000    0.0000
       158         1         1  316.0000    0.0000    0.0000
       159         1         1  318.0000    0.0000    0.0000
       160         1         1  320.0000    0.0000    0.0000
       161         1         1  322.0000    0.0000    0.0000
       162         1         1  324.0000    0.0000    0.0000
       163         1         1  326.0000    0.0000    0.0000
       164         1         1  328.0000    0.0000    0.0000
       165         1         1  330.0000    0.0000    0.0000
       166         1         1  332.0000    0.0000    0.0000
       167         1         1  334.0000    0.0000    0.0000
       168         1         1  336.0000    0.0000    0.0000
       169         1         1  338.0000    0.0000    0.0000
       170         1         1  340.0000    0.0000    0.0000
       171         1         1  342.0000    0.0000    0.0000
       172         1         1  344.0000    0.0000    0.0000
       173         1         1  346.0000    0.0000    0.0000
       174         1         1  348.0000    0.0000    0.0000
       175         1         1  350.0000    0.0000    0.0000
       176         1         1  352.0000    0.0000    0.0000
       177         1         1  354.0000    0.0000    0.0000
       178         1         1  356.0000    0.0000    0.0000
       179         1         1  358.0000    0.0000    0.0000
       180         1         1  360.0000    0.0000    0.0000
       181         1         1  362.0000    0.0000    0.0000
       182         1         1  364.0000    0.0000    0.0000
       183         1         1  366.0000    0.0000    0.0000
       184         1         1  368.0000    0.0000    0.0000
       185         1         1  370.0000    0.0000    0.0000
       186         1         1  372.0000    0.0000    0.0000
       187         1         1  374.0000    0.0000    0.0000
       188         1         1  376.0000    0.0000    0.0000
       189         1         1  378.0000    0.0000    0.0000
       190         1         1  380.0000    0.0000    0.0000
       191         1         1  382.0000    0.0000    0.0000
       192         1         1  384.0000    0.0000    0.0000
       193         1         1  386.0000    0.0000    0.0000
       194         1         1  388.0000    0.0000    0.0000
       195         1         1  390.0000    0.0000    0.0000
       196         1         1  392.0000    0.0000    0.0000
       197         1         1  394.0000    0.0000    0.0000
       198         1         1  396.0000    0.0000    0.0000
       199         1         1  398.0000    0.0000    0.0000
       200         1         1  400.0000    0.0000    0.0000
       201         1         1  402.0000    0.0000    0.0000
       202         1         1  404.0000    0.0000    0.0000
       203         1         1  406.0000    0.0000    0.0000
       204         1         1  408.0000    0.0000    0.0000
       205         1         1  410.0000    0.0000    0.0000
       206         1         1  412.0000    0.0000    0.0000
       207         1         1  414.0000    0.0000    0.0000
       208         1         1  416.0000    0.0000    0.0000
       209         1         1  418.0000    0.0000    0.0000
       210         1         1  420.0000    0.0000    0.0000
       211         1         1  422.0000    0.0000    0.0000
       212         1         1  424.0000    0.0000    0.0000
       213         1         1  426.0000    0.0000    0.0000
       214         1         1  428.0000    0.0000    0.0000
       215         1         1  430.0000    0.0000    0.0000
       216         1         1  432.0000    0.0000    0.0000
       217         1         1  434.0000    0.0000    0.0000
       218         1         1  436.0000    0.0000    0.0000
       219         1         1  438.0000    0.0000    0.0000
       220         1         1  440.0000    0.0000    0.0000
       221         1         1  442.0000    0.0000    0.0000
       222         1         1  444.0000    0.0000    0.0000
       223         1         1  446.0000    0.0000    0.0000
       224         1         1  448.0000    0.0000    0.0000
       225         1         1  450.0000    0.0000    0.0000
       226         1         1  452.0000    0.0000    0.0000
       227         1         1  454.0000    0.0000    0.0000
       228         1         1  456.0000    0.0000    0.0000
       229         1         1  458.0000    0.0000    0.0000
       230         1         1  460.0000    0.0000    0.0000
       231         1         1  462.0000    0.0000    0.0000
       232         1         1  464.0000    0.0000    0.0000
       233         1         1  466.0000    0.0000    0.0000
       234         1         1  468.0000    0.0000    0.0000
       235         1         1  470.0000    0.0000    0.0000
       236         1         1  472.0000    0.0000    0.0000
       237         1         1  474.0000    0.0000    0.0000
       238         1         1  476.0000    0.0000    0.0000
       239         1         1  478.0000    0.0000    0.0000
       240         1         1  480.0000    0.0000    0.0000
       241         1         1  482.0000    0.0000    0.0000
       242         1         1  484.0000    0.0000    0.0000
       243         1         1  486.0000    0.0000    0.0000
       244         1         1  488.0000    0.0000    0.0000
       245         1         1  490.0000    0.0000    0.0000
       246         1         1  492.0000    0.0000    0.0000
       247         1         1  494.0000    0.0000    0.0000
       248         1         1  496.0000    0.0000    0.0000
       249         1         1  498.0000    0.0000    0.0000
       250         1         1  500.0000    0.0000    0.0000
       251         1         1  502.0000    0.0000    0.0000
       252         1         1  504.0000    0.0000    0.0000
       253         1         1  506.0000    0.0000    0.0000
       254         1         1  508.0000    0.0000    0.0000
       255         1         1  510.0000    0.0000    0.0000
       256         1         1  512.0000    0.0000    0.0000
       257         1         1  514.0000    0.0000    0.0000
       258         1         1  516.0000    0.0000    0.0000
       259         1         1  518.0000    0.0000    0.0000
       260         1         1  520.0000    0.0000    0.0000
       261         1         1  522.0000    0.0000    0.0000
       262         1         1  524.0000    0.0000    0.0000
       263         1         1  526.0000    0.0000    0.0000
       264         1         1  528.0000    0.0000    0.0000
       265         1         1  530.0000    0.0000    0.0000
       266         1         1  532.0000    0.0000    0.0000
       267         1         1  534.0000    0.0000    0.0000
       268         1         1  536.0000    0.0000    0.0000
       269         1         1  538.0000    0.0000    0.0000
       270         1         1  540.0000    0.0000    0.0000
       271         1         1  542.0000    0.0000    0.0000
       272         1         1  544.0000    0.0000    0.0000
       273         1         1  546.0000    0.0000    0.0000
       274         1         1  548.0000    0.0000    0.0000
       275         1         1  550.0000    0.0000    0.0000
       276         1         1  552.0000    0.0000    0.0000
       277         1         1  554.0000    0.0000    0.0000
       278         1         1  556.0000    0.0000    0.0000
       279         1         1  558.0000    0.0000    0.0000
       280         1         1  560.0000    0.0000    0.0000
       281         1         1  562.0000    0.0000    0.0000
       282         1         1  564.0000    0.0000    0.0000
       283         1         1  566.0000    0.0000    0.0000
       284         1         1  568.0000    0.0000    0.0000
       285         1         1  570.0000    0.0000    0.0000
       286         1         1  572.0000    0.0000    0.0000
       287         1         1  574.0000    0.0000    0.0000
       288         1         1  576.0000    0.0000    0.0000
       289         1         1  578.0000    0.0000    0.0000
       290         1         1  580.0000    0.0000    0.0000
       291         1         1  582.0000    0.0000    0.0000
       292         1         1  584.0000    0.0000    0.0000
       293         1         1  586.0000    0.0000    0.0000
       294         1         1  588.0000    0.0000    0.0000
       295         1         1  590.0000    0.0000    0.0000
       296         1         1  592.0000    0.0000    0.0000
       297         1         1  594.0000    0.0000    0.0000
       298         1         1  596.0000    0.0000    0.0000
       299         1         1  598.0000    0.0000    0.0000
       300         1         1  600.0000    0.0000    0.0000
       301         1         3    2.0000    1.0000    0.0000
       302         1         3    4.0000    1.0000    0.0000
       303         1         3    6.0000    1.0000    0.0000
       304         1         3    8.0000    1.0000    0.0000
       305         1         3   10.0000    1.0000    0.0000
       306         1         3   12.0000    1.0000    0.0000
       307         1         3   14.0000    1.0000    0.0000
       308         1         3   16.0000    1.0000    0.0000
       309         1         3   18.0000    1.0000    0.0000
       310         1         3   20.0000    1.0000    0.0000
       311         1         3   22.0000    1.0000    0.0000
       312         1         3   24.0000    1.0000    0.0000
       313         1         3   26.0000    1.0000    0.0000
       314         1         3   28.0000    1.0000    0.0000
       315         1         3   30.0000    1.0000    0.0000
       316         1         3   32.0000    1.0000    0.0000
       317         1         3   34.0000    1.0000    0.0000
       318         1         3   36.0000    1.0000    0.0000
       319         1         3   38.0000    1.0000    0.0000
       320         1         3   40.0000    1.0000    0.0000
       321         1         3   42.0000    1.0000    0.0000
       322         1         3   44.0000    1.0000    0.0000
       323         1         3   46.0000    1.0000    0.0000
       324         1         3   48.0000    1.0000    0.0000
       325         1         3   50.0000    1.0000    0.0000
       326         1         3   52.0000    1.0000    0.0000
       327         1         3   54.0000    1.0000    0.0000
       328         1         3   56.0000    1.0000    0.0000
       329         1         3   58.0000    1.0000    0.0000
       330         1         3   60.0000    1.0000    0.0000
       331         1         3   62.0000    1.0000    0.0000
       332         1         3   64.0000    1.0000    0.0000
       333         1         3   66.0000    1.0000    0.0000
       334         1         3   68.0000    1.0000    0.0000
       335         1         3   70.0000    1.0000    0.0000
       336         1         3   72.0000    1.0000    0.0000
       337         1         3   74.0000    1.0000    0.0000
       338         1         3   76.0000    1.0000    0.0000
       339         1         3   78.0000    1.0000    0.0000
       340         1         3   80.0000    1.0000    0.0000
       341         1         3   82.0000    1.0000    0.0000
       342         1         3   84.0000    1.0000    0.0000
       343         1         3   86.0000    1.0000    0.0000
       344         1         3   88.0000    1.0000    0.0000
       345         1         3   90.0000    1.0000    0.0000
       346         1         3   92.0000    1.0000    0.0000
       347         1         3   94.0000    1.0000    0.0000
       348         1         3   96.0000    1.0000    0.0000
       349         1         3   98.0000    1.0000    0.0000
       350         1         3  100.0000    1.0000    0.0000
       351         1         3  102.0000    1.0000    0.0000
       352         1         3  104.0000    1.0000    0.0000
       353         1         3  106.0000    1.0000    0.0000
       354         1         3  108.0000    1.0000    0.0000
       355         1         3  110.0000    1.0000    0.0000
       356         1         3  112.0000    1.0000    0.0000
       357         1         3  114.0000    1.0000    0.0000
       358         1         3  116.0000    1.0000    0.0000
       359         1         3  118.0000    1.0000    0.0000
       360         1         3  120.0000    1.0000    0.0000
       361         1         3  122.0000    1.0000    0.0000
       362         1         3  124.0000    1.0000    0.0000
       363         1         3  126.0000    1.0000    0.0000
       364         1         3  128.0000    1.0000    0.0000
       365         1         3  130.0000    1.0000    0.0000
       366         1         3  132.0000    1.0000    0.0000
       367         1         3  134.0000    1.0000    0.0000
       368         1         3  136.0000    1.0000    0.0000
       369         1         3  138.0000    1.0000    0.0000
       370         1         3  140.0000    1.0000    0.0000
       371         1         3  142.0000    1.0000    0.0000
       372         1         3  144.0000    1.0000    0.0000
       373         1         3  146.0000    1.0000    0.0000
       374         1         3  148.0000    1.0000    0.0000
       375         1         3  150.0000    1.0000    0.0000
       376         1         3  152.0000    1.0000    0.0000
       377         1         3  154.0000    1.0000    0.0000
       378         1         3  156.0000    1.0000    0.0000
       379         1         3  158.0000    1.0000    0.0000
       380         1         3  160.0000    1.0000    0.0000
       381         1         3  162.0000    1.0000    0.0000
       382         1         3  164.0000    1.0000    0.0000
       383         1         3  166.0000    1.0000    0.0000
       384         1         3  168.0000    1.0000    0.0000
       385         1         3  170.0000    1.0000    0.0000
       386         1         3  172.0000    1.0000    0.0000
       387         1         3  174.0000    1.0000    0.0000
       388         1         3  176.0000    1.0000    0.0000
       389         1         3  178.0000    1.0000    0.0000
       390         1         3  180.0000    1.0000    0.0000
       391         1         3  182.0000    1.0000    0.0000
       392         1         3  184.0000    1.0000    0.0000
       393         1         3  186.0000    1.0000    0.0000
       394         1         3  188.0000    1.0000    0.0000
       395         1         3  190.0000    1.0000    0.0000
       396         1         3  192.0000    1.0000    0.0000
       397         1         3  194.0000    1.0000    0.0000
       398         1         3  196.0000    1.0000    0.0000
       399         1         3  198.0000    1.0000    0.0000
       400         1         3  200.0000    1.0000    0.0000
       401         1         3  202.0000    1.0000    0.0000
       402         1         3  204.0000    1.0000    0.0000
       403         1         3  206.0000    1.0000    0.0000
       404         1         3  208.0000    1.0000    0.0000
       405         1         3  210.0000    1.0000    0.0000
       406         1         3  212.0000    1.0000    0.0000
       407         1         3  214.0000    1.0000    0.0000
       408         1         3  216.0000    1.0000    0.0000
       409         1         3  218.0000    1.0000    0.0000
       410         1         3  220.0000    1.0000    0.0000
       411         1         3  222.0000    1.0000    0.0000
       412         1         3  224.0000    1.0000    0.0000
       413         1         3  226.0000    1.0000    0.0000
       414         1         3  228.0000    1.0000    0.0000
       415         1         3  230.0000    1.0000    0.0000
       416         1         3  232.0000    1.0000    0.0000
       417         1         3  234.0000    1.0000    0.0000
       418         1         3  236.0000    1.0000    0.0000
       419         1         3  238.0000    1.0000    0.0000
       420         1         3  240.0000    1.0000    0.0000
       421         1         3  242.0000    1.0000    0.0000
       422         1         3  244.0000    1.0000    0.0000
       423         1         3  246.0000    1.0000    0.0000
       424         1         3  248.0000    1.0000    0.0000
       425         1         3  250.0000    1.0000    0.0000
       426         1         3  252.0000    1.0000    0.0000
       427         1         3  254.0000    1.0000    0.0000
       428         1         3  256.0000    1.0000    0.0000
       429         1         3  258.0000    1.0000    0.0000
       430         1         3  260.0000    1.0000    0.0000
       431         1         3  262.0000    1.0000    0.0000
       432         1         3  264.0000    1.0000    0.0000
       433         1         3  266.0000    1.0000    0.0000
       434         1         3  268.0000    1.0000    0.0000
       435         1         3  270.0000    1.0000    0.0000
       436         1         3  272.0000    1.0000    0.0000
       437         1         3  274.0000    1.0000    0.0000
       438         1         3  276.0000    1.0000    0.0000
       439         1         3  278.0000    1.0000    0.0000
       440         1         3  280.0000    1.0000    0.0000
       441         1         3  282.0000    1.0000    0.0000
       442         1         3  284.0000    1.0000    0.0000
       443         1         3  286.0000    1.0000    0.0000
       444         1         3  288.0000    1.0000    0.0000
       445         1         3  290.0000    1.0000    0.0000
       446         1         3  292.0000    1.0000    0.0000
       447         1         3  294.0000    1.0000    0.0000
       448         1         3  296.0000    1.0000    0.0000
       449         1         3  298.0000    1.0000    0.0000
       450         1         3  300.0000    1.0000    0.0000
       451         1         3  302.0000    1.0000    0.0000
       452         1         3  304.0000    1.0000    0.0000
       453         1         3  306.0000    1.0000    0.0000
       454         1         3  308.0000    1.0000    0.0000
       455         1         3  310.0000    1.0000    0.0000
       456         1         3  312.0000    1.0000    0.0000
       457         1         3  314.0000    1.0000    0.0000
       458         1         3  316.0000    1.0000    0.0000
       459         1         3  318.0000    1.0000    0.0000
       460         1         3  320.0000    1.0000    0.0000
       461         1         3  322.0000    1.0000    0.0000
       462         1         3  324.0000    1.0000    0.0000
       463         1         3  326.0000    1.0000    0.0000
       464         1         3  328.0000    1.0000    0.0000
       465         1         3  330.0000    1.0000    0.0000
       466         1         3  332.0000    1.0000    0.0000
       467         1         3  334.0000    1.0000    0.0000
       468         1         3  336.0000    1.0000    0.0000
       469         1         3  338.0000    1.0000    0.0000
       470         1         3  340.0000    1.0000    0.0000
       471         1         3  342.0000    1.0000    0.0000
       472         1         3  344.0000    1.0000    0.0000
       473         1         3  346.0000    1.0000    0.0000
       474         1         3  348.0000    1.0000    0.0000
       475         1         3  350.0000    1.0000    0.0000
       476         1         3  352.0000    1.0000    0.0000
       477         1         3  354.0000    1.0000    0.0000
       478         1         3  356.0000    1.0000    0.0000
       479         1         3  358.0000    1.0000    0.0000
       480         1         3  360.0000    1.0000    0.0000
       481         1         3  362.0000    1.0000    0.0000
       482         1         3  364.0000    1.0000    0.0000
       483         1         3  366.0000    1.0000    0.0000
       484         1         3  368.0000    1.0000    0.0000