620
 Atoms. Timestep: 0
1 2 0 0
1 4 0 0
1 6 0 0
1 8 0 0
1 10 0 0
1 12 0 0
1 14 0 0
1 16 0 0
1 18 0 0
1 20 0 0
1 22 0 0
1 24 0 0
1 26 0 0
1 28 0 0
1 30 0 0
1 32 0 0
1 34 0 0
1 36 0 0
1 38 0 0
1 40 0 0
1 42 0 0
1 44 0 0
1 46 0 0
1 48 0 0
1 50 0 0
1 52 0 0
1 54 0 0
1 56 0 0
1 58 0 0
1 60 0 0
1 62 0 0
1 64 0 0
1 66 0 0
1 68 0 0
1 70 0 0
1 72 0 0
1 74 0 0
1 76 0 0
1 78 0 0
1 80 0 0
1 82 0 0
1 84 0 0
1 86 0 0
1 88 0 0
1 90 0 0
1 92 0 0
1 94 0 0
1 96 0 0
1 98 0 0
1 100 0 0
1 102 0 0
1 104 0 0
1 106 0 0
1 108 0 0
1 110 0 0
1 112 0 0
1 114 0 0
1 116 0 0
1 118 0 0
1 120 0 0
1 122 0 0
1 124 0 0
1 126 0 0
1 128 0 0
1 130 0 0
1 132 0 0
1 134 0 0
1 136 0 0
1 138 0 0
1 140 0 0
1 142 0 0
1 144 0 0
1 146 0 0
1 148 0 0
1 150 0 0
1 152 0 0
1 154 0 0
1 156 0 0
1 158 0 0
1 160 0 0
1 162 0 0
1 164 0 0
1 166 0 0
1 168 0 0
1 170 0 0
1 172 0 0
1 174 0 0
1 176 0 0
1 178 0 0
1 180 0 0
1 182 0 0
1 184 0 0
1 186 0 0
1 188 0 0
1 190 0 0
1 192 0 0
1 194 0 0
1 196 0 0
1 198 0 0
1 200 0 0
1 202 0 0
1 204 0 0
1 206 0 0
1 208 0 0
1 210 0 0
1 212 0 0
1 214 0 0
1 216 0 0
1 218 0 0
1 220 0 0
1 222 0 0
1 224 0 0
1 226 0 0
1 228 0 0
1 230 0 0
1 232 0 0
1 234 0 0
1 236 0 0
1 238 0 0
1 240 0 0
1 242 0 0
1 244 0 0
1 246 0 0
1 248 0 0
1 250 0 0
1 252 0 0
1 254 0 0
1 256 0 0
1 258 0 0
1 260 0 0
1 262 0 0
1 264 0 0
1 266 0 0
1 268 0 0
1 270 0 0
1 272 0 0
1 274 0 0
1 276 0 0
1 278 0 0
1 280 0 0
1 282 0 0
1 284 0 0
1 286 0 0
1 288 0 0
1 290 0 0
1 292 0 0
1 294 0 0
1 296 0 0
1 298 0 0
1 300 0 0
1 302 0 0
1 304 0 0
1 306 0 0
1 308 0 0
1 310 0 0
1 312 0 0
1 314 0 0
1 316 0 0
1 318 0 0
1 320 0 0
1 322 0 0
1 324 0 0
1 326 0 0
1 328 0 0
1 330 0 0
1 332 0 0
1 334 0 0
1 336 0 0
1 338 0 0
1 340 0 0
1 342 0 0
1 344 0 0
1 346 0 0
1 348 0 0
1 350 0 0
1 352 0 0
1 354 0 0
1 356 0 0
1 358 0 0
1 360 0 0
1 362 0 0
1 364 0 0
1 366 0 0
1 368 0 0
1 370 0 0
1 372 0 0
1 374 0 0
1 376 0 0
1 378 0 0
1 380 0 0
1 382 0 0
1 384 0 0
1 386 0 0
1 388 0 0
1 390 0 0
1 392 0 0
1 394 0 0
1 396 0 0
1 398 0 0
1 400 0 0
1 402 0 0
1 404 0 0
1 406 0 0
1 408 0 0
1 410 0 0
1 412 0 0
1 414 0 0
1 416 0 0
1 418 0 0
1 420 0 0
1 422 0 0
1 424 0 0
1 426 0 0
1 428 0 0
1 430 0 0
1 432 0 0
1 434 0 0
1 436 0 0
1 438 0 0
1 440 0 0
1 442 0 0
1 444 0 0
1 446 0 0
1 448 0 0
1 450 0 0
1 452 0 0
1 454 0 0
1 456 0 0
1 458 0 0
1 460 0 0
1 462 0 0
1 464 0 0
1 466 0 0
1 468 0 0
1 470 0 0
1 472 0 0
1 474 0 0
1 476 0 0
1 478 0 0
1 480 0 0
1 482 0 0
1 484 0 0
1 486 0 0
1 488 0 0
1 490 0 0
1 492 0 0
1 494 0 0
1 496 0 0
1 498 0 0
1 500 0 0
1 502 0 0
1 504 0 0
1 506 0 0
1 508 0 0
1 510 0 0
1 512 0 0
1 514 0 0
1 516 0 0
1 518 0 0
1 520 0 0
1 522 0 0
1 524 0 0
1 526 0 0
1 528 0 0
1 530 0 0
1 532 0 0
1 534 0 0
1 536 0 0
1 538 0 0
1 540 0 0
1 542 0 0
1 544 0 0
1 546 0 0
1 548 0 0
1 550 0 0
1 552 0 0
1 554 0 0
1 556 0 0
1 558 0 0
1 560 0 0
1 562 0 0
1 564 0 0
1 566 0 0
1 568 0 0
1 570 0 0
1 572 0 0
1 574 0 0
1 576 0 0
1 578 0 0
1 580 0 0
1 582 0 0
1 584 0 0
1 586 0 0
1 588 0 0
1 590 0 0
1 592 0 0
1 594 0 0
1 596 0 0
1 598 0 0
1 600 0 0
3 2 1 0
3 4 1 0
3 6 1 0
3 8 1 0
3 10 1 0
3 12 1 0
3 14 1 0
3 16 1 0
3 18 1 0
3 20 1 0
3 22 1 0
3 24 1 0
3 26 1 0
3 28 1 0
3 30 1 0
3 32 1 0
3 34 1 0
3 36 1 0
3 38 1 0
3 40 1 0
3 42 1 0
3 44 1 0
3 46 1 0
3 48 1 0
3 50 1 0
3 52 1 0
3 54 1 0
3 56 1 0
3 58 1 0
3 60 1 0
3 62 1 0
3 64 1 0
3 66 1 0
3 68 1 0
3 70 1 0
3 72 1 0
3 74 1 0
3 76 1 0
3 78 1 0
3 80 1 0
3 82 1 0
3 84 1 0
3 86 1 0
3 88 1 0
3 90 1 0
3 92 1 0
3 94 1 0
3 96 1 0
3 98 1 0
3 100 1 0
3 102 1 0
3 104 1 0
3 106 1 0
3 108 1 0
3 110 1 0
3 112 1 0
3 114 1 0
3 116 1 0
3 118 1 0
3 120 1 0
3 122 1 0
3 124 1 0
3 126 1 0
3 128 1 0
3 130 1 0
3 132 1 0
3 134 1 0
3 136 1 0
3 138 1 0
3 140 1 0
3 142 1 0
3 144 1 0
3 146 1 0
3 148 1 0
3 150 1 0
3 152 1 0
3 154 1 0
3 156 1 0
3 158 1 0
3 160 1 0
3 162 1 0
3 164 1 0
3 166 1 0
3 168 1 0
3 170 1 0
3 172 1 0
3 174 1 0
3 176 1 0
3 178 1 0
3 180 1 0
3 182 1 0
3 184 1 0
3 186 1 0
3 188 1 0
3 190 1 0
3 192 1 0
3 194 1 0
3 196 1 0
3 198 1 0
3 200 1 0
3 202 1 0
3 204 1 0
3 206 1 0
3 208 1 0
3 210 1 0
3 212 1 0
3 214 1 0
3 216 1 0
3 218 1 0
3 220 1 0
3 222 1 0
3 224 1 0
3 226 1 0
3 228 1 0
3 230 1 0
3 232 1 0
3 234 1 0
3 236 1 0
3 238 1 0
3 240 1 0
3 242 1 0
3 244 1 0
3 246 1 0
3 248 1 0
3 250 1 0
3 252 1 0
3 254 1 0
3 256 1 0
3 258 1 0
3 260 1 0
3 262 1 0
3 264 1 0
3 266 1 0
3 268 1 0
3 270 1 0
3 272 1 0
3 274 1 0
3 276 1 0
3 278 1 0
3 280 1 0
3 282 1 0
3 284 1 0
3 286 1 0
3 288 1 0
3 290 1 0
3 292 1 0
3 294 1 0
3 296 1 0
3 298 1 0
3 300 1 0
3 302 1 0
3 304 1 0
3 306 1 0
3 308 1 0
3 310 1 0
3 312 1 0
3 314 1 0
3 316 1 0
3 318 1 0
3 320 1 0
3 322 1 0
3 324 1 0
3 326 1 0
3 328 1 0
3 330 1 0
3 332 1 0
3 334 1 0
3 336 1 0
3 338 1 0
3 340 1 0
3 342 1 0
3 344 1 0
3 346 1 0
3 348 1 0
3 350 1 0
3 352 1 0
3 354 1 0
3 356 1 0
3 358 1 0
3 360 1 0
3 362 1 0
3 364 1 0
3 366 1 0
3 368 1 0
3 370 1 0
3 372 1 0
3 374 1 0
3 376 1 0
3 378 1 0
3 380 1 0
3 382 1 0
3 384 1 0
3 386 1 0
3 388 1 0
3 390 1 0
3 392 1 0
3 394 1 0
3 396 1 0
3 398 1 0
3 400 1 0
3 402 1 0
3 404 1 0
3 406 1 0
3 408 1 0
3 410 1 0
3 412 1 0
3 414 1 0
3 416 1 0
3 418 1 0
3 420 1 0
3 422 1 0
3 424 1 0
3 426 1 0
3 428 1 0
3 430 1 0
3 432 1 0
3 434 1 0
3 436 1 0
3 438 1 0
3 440 1 0
3 442 1 0
3 444 1 0
3 446 1 0
3 448 1 0
3 450 1 0
3 452 1 0
3 454 1 0
3 456 1 0
3 458 1 0
3 460 1 0
3 462 1 0
3 464 1 0
3 466 1 0
3 468 1 0
3 470 1 0
3 472 1 0
3 474 1 0
3 476 1 0
3 478 1 0
3 480 1 0
3 482 1 0
3 484 1 0
3 486 1 0
3 488 1 0
3 490 1 0
3 492 1 0
3 494 1 0
3 496 1 0
3 498 1 0
3 500 1 0
3 502 1 0
3 504 1 0
3 506 1 0
3 508 1 0
3 510 1 0
3 512 1 0
3 514 1 0
3 516 1 0
3 518 1 0
3 520 1 0
3 522 1 0
3 524 1 0
3 526 1 0
3 528 1 0
3 530 1 0
3 532 1 0
3 534 1 0
3 536 1 0
3 538 1 0
3 540 1 0
3 542 1 0
3 544 1 0
3 546 1 0
3 548 1 0
3 550 1 0
3 552 1 0
3 554 1 0
3 556 1 0
3 558 1 0
3 560 1 0
3 562 1 0
3 564 1 0
3 566 1 0
3 568 1 0
3 570 1 0
3 572 1 0
3 574 1 0
3 576 1 0
3 578 1 0
3 580 1 0
3 582 1 0
3 584 1 0
3 586 1 0
3 588 1 0
3 590 1 0
3 592 1 0
3 594 1 0
3 596 1 0
3 598 1 0
3 600 1 0
2 240.062 6.2678 2
4 241.062 6.2678 2
2 260.842 7.6531 2
4 261.842 7.6531 2
2 280.65 2 4.162
4 281.65 2 4.162
2 300.38 2 2
4 301.38 2 2
2 320.983 9.2618 3.3027
4 321.983 9.2618 3.3027
2 340.197 6.4306 7.5316
4 341.197 6.4306 7.5316
2 360.01 2 7.1072
4 361.01 2 7.1072
2 380.272 3.3934 5.2168
4 381.272 3.3934 5.2168
2 400.553 2 2
4 401.553 2 2
2 420.983 5.0636 9.5315
4 421.983 5.0636 9.5315
